 Gaussian 16, Revision B.01,
 Gaussian 16:  ES64L-G16RevB.01 20-Dec-2017

 ----------------------------------------------------------------------
 #p ub3lyp/def2tzvp EmpiricalDispersion=GD3 gfinput gfoldprint scfcyc=1
 000 scf=xqc scrf=(pcm,Solvent=Acetonitrile)
 ----------------------------------------------------------------------

 -----
 title
 -----
 Symbolic Z-matrix:
 Charge =  2 Multiplicity = 1

                         Standard orientation:
 ---------------------------------------------------------------------
 Center     Atomic      Atomic             Coordinates (Angstroms)
 Number     Number       Type             X           Y           Z
 ---------------------------------------------------------------------
      1         44           0       -2.416645    0.004233    0.523067
      2         15           0       -4.799137    1.039712    0.121405
      3          8           0       -1.811630    1.270905   -0.955297
      4          8           0       -0.754328   -0.404579    0.938984
      5          8           0       -3.961656   -2.599985   -2.804330
      6          8           0       -3.058374   -1.334893   -0.764605
      7          7           0       -3.062941   -1.096704    2.104892
      8          8           0       -0.724180    2.297181   -3.058370
      9          7           0       -2.191824    1.469787    1.939946
     10          6           0       -3.628292   -2.255498    2.043995
     11          1           0       -3.902989   -2.747606    2.980501
     12          6           0       -0.997180    2.245706   -0.721132
     13          6           0       -3.703034   -2.450275   -0.481070
     14          6           0       -4.189512   -3.186670   -1.608205
     15          6           0       -3.964382   -2.960419    0.828205
     16          6           0       -6.671852   -0.971906   -0.468098
     17          1           0       -6.482856   -0.736383   -1.510362
     18          6           0       -6.318185    2.745324    1.846319
     19          1           0       -7.046219    1.948270    1.951140
     20          6           0       -7.774770   -2.340700    1.197611
     21          1           0       -8.443613   -3.158153    1.449678
     22          6           0        0.597158    3.839292   -1.722224
     23          1           0        1.091207    4.257921   -2.591618
     24          6           0       -6.303408   -0.550362    1.888361
     25          1           0       -5.824992    0.010154    2.686532
     26          6           0       -7.168100   -1.594102    2.212124
     27          1           0       -7.368531   -1.826074    3.254422
     28          6           0       -6.056353   -0.218072    0.543696
     29          6           0       -1.356419    2.446270    1.791301
     30          1           0       -1.129401    3.055457    2.670613
     31          6           0       -0.339621    2.825925   -1.874143
     32          6           0       -6.011853    2.462507   -1.968552
     33          1           0       -6.558888    2.983396   -1.188932
     34          6           0       -7.522697   -2.028250   -0.138874
     35          1           0       -7.991387   -2.605116   -0.930401
     36          6           0       -4.836786   -4.407544   -1.425769
     37          1           0       -5.187761   -4.972768   -2.281033
     38          6           0       -5.184159    2.572611    1.038888
     39          6           0       -4.358035    0.816206   -2.654094
     40          1           0       -3.625937    0.057637   -2.414197
     41          6           0       -4.642314   -4.189765    0.973083
     42          1           0       -4.845877   -4.565356    1.971785
     43          6           0       -2.802036    1.084307    3.212571
     44          1           0       -3.856879    1.382878    3.189602
     45          1           0       -2.321135    1.592396    4.056444
     46          6           0       -6.253279    2.776487   -3.304977
     47          1           0       -6.988195    3.536131   -3.554592
     48          6           0       -5.064750    1.477642   -1.636021
     49          6           0       -4.610548    1.138419   -3.988568
     50          1           0       -4.059884    0.625670   -4.772569
     51          6           0       -0.694756    2.821014    0.570062
     52          6           0       -0.284784    2.930621   -4.253378
     53          1           0       -0.565811    3.991112   -4.271319
     54          1           0       -0.785691    2.406635   -5.068265
     55          1           0        0.803720    2.844078   -4.380857
     56          6           0       -5.552351    2.115085   -4.317191
     57          1           0       -5.741455    2.363167   -5.357858
     58          6           0       -5.058639   -4.908509   -0.135064
     59          1           0       -5.573190   -5.855665   -0.010721
     60          6           0       -4.512387   -3.199953   -3.975413
     61          1           0       -5.602182   -3.298854   -3.896326
     62          1           0       -4.067143   -4.183915   -4.168380
     63          1           0       -4.267750   -2.522701   -4.794179
     64          6           0       -4.503888    4.851535    1.532002
     65          1           0       -3.806430    5.672971    1.394479
     66          6           0        0.916155    4.344355   -0.447835
     67          1           0        1.661278    5.126752   -0.352939
     68          6           0        0.265194    3.858162    0.668579
     69          1           0        0.490558    4.271164    1.648070
     70          6           0       -4.283491    3.641575    0.878515
     71          1           0       -3.421940    3.531512    0.226769
     72          6           0       -5.623895    5.010100    2.354676
     73          1           0       -5.795434    5.953356    2.864806
     74          6           0       -2.681855   -0.446659    3.368824
     75          1           0       -1.631808   -0.704490    3.551248
     76          1           0       -3.296346   -0.800754    4.204725
     77          6           0       -6.530598    3.959765    2.504522
     78          1           0       -7.413497    4.085676    3.124286
     79         44           0        2.417036   -0.006165   -0.526128
     80         15           0        4.800151   -1.038641   -0.118691
     81          8           0        1.811514   -1.272024    0.952842
     82          8           0        0.754925    0.400806   -0.944986
     83          8           0        3.951087    2.604861    2.801115
     84          8           0        3.054983    1.335197    0.761112
     85          7           0        3.065513    1.093167   -2.108072
     86          8           0        0.722526   -2.297742    3.055740
     87          7           0        2.196142   -1.473714   -1.941430
     88          6           0        3.630318    2.252270   -2.047560
     89          1           0        3.906987    2.743114   -2.984144
     90          6           0        0.998127   -2.247682    0.718621
     91          6           0        3.699125    2.450811    0.477397
     92          6           0        4.181841    3.189606    1.604570
     93          6           0        3.963242    2.959135   -0.832038
     94          6           0        6.669897    0.975549    0.471529
     95          1           0        6.479159    0.741313    1.513764
     96          6           0        6.324003   -2.745317   -1.838351
     97          1           0        7.051579   -1.947800   -1.942836
     98          6           0        7.774746    2.342977   -1.194027
     99          1           0        8.443325    3.160680   -1.445982
    100          6           0       -0.596601   -3.841247    1.719040
    101          1           0       -1.091452   -4.259395    2.588219
    102          6           0        6.306377    0.550280   -1.885021
    103          1           0        5.830015   -0.011831   -2.683302
    104          6           0        7.170728    1.594357   -2.208628
    105          1           0        7.372955    1.825009   -3.250873
    106          6           0        6.057047    0.219679   -0.540361
    107          6           0        1.361263   -2.450706   -1.793004
    108          1           0        1.136329   -3.061238   -2.671920
    109          6           0        0.339622   -2.827434    1.871289
    110          6           0        6.010614   -2.457255    1.975432
    111          1           0        6.559701   -2.978538    1.197517
    112          6           0        7.520383    2.032217    0.142424
    113          1           0        7.987020    2.610656    0.934017
    114          6           0        4.828531    4.410740    1.421809
    115          1           0        5.176717    4.977720    2.277050
    116          6           0        5.188278   -2.572464   -1.033342
    117          6           0        4.353633   -0.811968    2.655708
    118          1           0        3.621112   -0.054567    2.413428
    119          6           0        4.640493    4.188816   -0.977178
    120          1           0        4.846231    4.562997   -1.975962
    121          6           0        2.808617   -1.089597   -3.213383
    122          1           0        3.863590   -1.387493   -3.187936
    123          1           0        2.329692   -1.599124   -4.057513
    124          6           0        6.249876   -2.769233    3.312715
    125          1           0        6.985188   -3.527710    3.564703
    126          6           0        5.063013   -1.473915    1.639829
    127          6           0        4.603989   -1.132163    3.991077
    128          1           0        4.051284   -0.619002    4.773374
    129          6           0        0.697737   -2.824358   -0.572438
    130          6           0        0.286011   -2.933657    4.250555
    131          1           0        0.569259   -3.993577    4.266642
    132          1           0        0.786956   -2.409698    5.065441
    133          1           0       -0.802472   -2.849549    4.379743
    134          6           0        5.546281   -2.107324    4.322748
    135          1           0        5.733714   -2.353834    5.364091
    136          6           0        5.053363    4.909734    0.130852
    137          1           0        5.567435    5.857118    0.006272
    138          6           0        4.498490    3.207110    3.972585
    139          1           0        5.588416    3.306578    3.896084
    140          1           0        4.052155    4.191116    4.162814
    141          1           0        4.252220    2.531069    4.791864
    142          6           0        4.510850   -4.852611   -1.524729
    143          1           0        3.813810   -5.674445   -1.387461
    144          6           0       -0.914055   -4.347310    0.444662
    145          1           0       -1.658846   -5.129992    0.349495
    146          6           0       -0.261756   -3.861905   -0.671323
    147          1           0       -0.485534   -4.275978   -1.650728
    148          6           0        4.288188   -3.641964   -0.873284
    149          1           0        3.425301   -3.531749   -0.223338
    150          6           0        5.632574   -5.011344   -2.345028
    151          1           0        5.805871   -5.955135   -2.853573
    152          6           0        2.687850    0.441094   -3.371980
    153          1           0        1.638102    0.698042   -3.557344
    154          1           0        3.304069    0.794426   -4.206930
    155          6           0        6.538695   -3.960459   -2.494523
    156          1           0        7.422892   -4.086460   -3.112415
 ---------------------------------------------------------------------

 SCF Done:  E(UB3LYP) =  -4628.68242859     A.U. after   27 cycles

 Alpha virt. eigenvalues --    2.85708   2.85937   2.85942   2.86029   2.86164
 Alpha virt. eigenvalues --    2.86763   2.86842   2.87049   2.87095   2.87373
 Alpha virt. eigenvalues --    2.87554   2.87578   2.87898   2.87921   2.88333

  Beta  occ. eigenvalues --  -77.11293 -77.11291 -19.17737 -19.17736 -19.17378
  Beta  occ. eigenvalues --  -19.17377 -19.16882 -19.16882 -19.16308 -19.16306
  Beta  occ. eigenvalues --  -19.14276 -19.14275 -14.38638 -14.38637 -14.38127
  Beta  occ. eigenvalues --  -14.38126 -10.26449 -10.26449 -10.26439 -10.26437
  Beta  occ. eigenvalues --  -10.26244 -10.26243 -10.26092 -10.26090 -10.25861
  Beta  occ. eigenvalues --  -10.25861 -10.25303 -10.25301 -10.23851 -10.23850
  Beta  occ. eigenvalues --  -10.23777 -10.23775 -10.23192 -10.23191 -10.23100
  Beta  occ. eigenvalues --  -10.23099 -10.21453 -10.21452 -10.21218 -10.21217
  Beta  occ. eigenvalues --  -10.21182 -10.21181 -10.20746 -10.20745 -10.20725
  Beta  occ. eigenvalues --  -10.20723 -10.20203 -10.20203 -10.20106 -10.20105
  Beta  occ. eigenvalues --  -10.20102 -10.20101 -10.19953 -10.19953 -10.19882
  Beta  occ. eigenvalues --  -10.19882 -10.19862 -10.19862 -10.19729 -10.19728
  Beta  occ. eigenvalues --  -10.19615 -10.19614 -10.19525 -10.19524 -10.19519
  Beta  occ. eigenvalues --  -10.19519 -10.19519 -10.19516 -10.19491 -10.19491
  Beta  occ. eigenvalues --  -10.19464 -10.19464 -10.19458 -10.19458 -10.19410
  Beta  occ. eigenvalues --  -10.19406 -10.19339 -10.19338 -10.19289 -10.19289
  Beta  occ. eigenvalues --  -10.19138 -10.19138 -10.19038 -10.19037 -10.18883
  Beta  occ. eigenvalues --  -10.18883 -10.18776 -10.18772  -6.59724  -6.59722
  Beta  occ. eigenvalues --   -4.75842  -4.75840  -4.75819  -4.75817  -4.75557
  Beta  occ. eigenvalues --   -4.75555  -3.11108  -3.11107  -1.96676  -1.96675
  Beta  occ. eigenvalues --   -1.95093  -1.95093  -1.93582  -1.93579  -1.09212
  Beta  occ. eigenvalues --   -1.09211  -1.08792  -1.08786  -1.05126  -1.05121
  Beta  occ. eigenvalues --   -1.04112  -1.04072  -0.98506  -0.98501  -0.96732
  Beta  occ. eigenvalues --   -0.96729  -0.92892  -0.91689  -0.88366  -0.88365
  Beta  occ. eigenvalues --   -0.87563  -0.87552  -0.87328  -0.87289  -0.87077
  Beta  occ. eigenvalues --   -0.87073  -0.86547  -0.86512  -0.81976  -0.81886
  Beta  occ. eigenvalues --   -0.79793  -0.79791  -0.79200  -0.79078  -0.77175
  Beta  occ. eigenvalues --   -0.77159  -0.77004  -0.77004  -0.76855  -0.76854
  Beta  occ. eigenvalues --   -0.76457  -0.76456  -0.76389  -0.76332  -0.76177
  Beta  occ. eigenvalues --   -0.76169  -0.76060  -0.76058  -0.75578  -0.75451
  Beta  occ. eigenvalues --   -0.71304  -0.71286  -0.70891  -0.70874  -0.69824
  Beta  occ. eigenvalues --   -0.69794  -0.67894  -0.67892  -0.66364  -0.66276
  Beta  occ. eigenvalues --   -0.64448  -0.64374  -0.63143  -0.63142  -0.62650
  Beta  occ. eigenvalues --   -0.62649  -0.62199  -0.62199  -0.61851  -0.61844
  Beta  occ. eigenvalues --   -0.61603  -0.61593  -0.61561  -0.61542  -0.61420
  Beta  occ. eigenvalues --   -0.61399  -0.61084  -0.61058  -0.58613  -0.58550
  Beta  occ. eigenvalues --   -0.58122  -0.58120  -0.55742  -0.55736  -0.55245
  Beta  occ. eigenvalues --   -0.55232  -0.54949  -0.54926  -0.53873  -0.53866
  Beta  occ. eigenvalues --   -0.53838  -0.53830  -0.53230  -0.53221  -0.52596
  Beta  occ. eigenvalues --   -0.52588  -0.51974  -0.51947  -0.51655  -0.51643
  Beta  occ. eigenvalues --   -0.50902  -0.50884  -0.50112  -0.50082  -0.49605
  Beta  occ. eigenvalues --   -0.49542  -0.49151  -0.48965  -0.48713  -0.48551
  Beta  occ. eigenvalues --   -0.48043  -0.47999  -0.47941  -0.47908  -0.47712
  Beta  occ. eigenvalues --   -0.47704  -0.47622  -0.47579  -0.47439  -0.47419
  Beta  occ. eigenvalues --   -0.47344  -0.47198  -0.46972  -0.46964  -0.46918
  Beta  occ. eigenvalues --   -0.46885  -0.46856  -0.46720  -0.46521  -0.46512
  Beta  occ. eigenvalues --   -0.46148  -0.45950  -0.45320  -0.44781  -0.44683
  Beta  occ. eigenvalues --   -0.44360  -0.44204  -0.44192  -0.43993  -0.43973
  Beta  occ. eigenvalues --   -0.43940  -0.43871  -0.43639  -0.43627  -0.43516
  Beta  occ. eigenvalues --   -0.43376  -0.43091  -0.42949  -0.42641  -0.42621
  Beta  occ. eigenvalues --   -0.41926  -0.41921  -0.41644  -0.41193  -0.41094
  Beta  occ. eigenvalues --   -0.40909  -0.40802  -0.40673  -0.40126  -0.40104
  Beta  occ. eigenvalues --   -0.39895  -0.39765  -0.39709  -0.39541  -0.39336
  Beta  occ. eigenvalues --   -0.39274  -0.39103  -0.39027  -0.38967  -0.38524
  Beta  occ. eigenvalues --   -0.38464  -0.38460  -0.38447  -0.38221  -0.37833
  Beta  occ. eigenvalues --   -0.37673  -0.37440  -0.37255  -0.36961  -0.36959
  Beta  occ. eigenvalues --   -0.36882  -0.36876  -0.36624  -0.36590  -0.36521
  Beta  occ. eigenvalues --   -0.36207  -0.36090  -0.35981  -0.35282  -0.35278
  Beta  occ. eigenvalues --   -0.35253  -0.35230  -0.34983  -0.34974  -0.34964
  Beta  occ. eigenvalues --   -0.34912  -0.34901  -0.34705  -0.34569  -0.34329
  Beta  occ. eigenvalues --   -0.33809  -0.33723  -0.33413  -0.33049  -0.32938
  Beta  occ. eigenvalues --   -0.32549  -0.32159  -0.32010  -0.31259  -0.31184
  Beta  occ. eigenvalues --   -0.28617  -0.28615  -0.27960  -0.27948  -0.27708
  Beta  occ. eigenvalues --   -0.27704  -0.27528  -0.27522  -0.27143  -0.27080
  Beta  occ. eigenvalues --   -0.27033  -0.26998  -0.26720  -0.26585  -0.25605
  Beta  occ. eigenvalues --   -0.25511  -0.25329  -0.25152  -0.23131  -0.22972
  Beta  occ. eigenvalues --   -0.22230  -0.22146  -0.20733
  Beta virt. eigenvalues --   -0.16414  -0.15163  -0.14646  -0.08916  -0.08379
  Beta virt. eigenvalues --   -0.08009  -0.07698  -0.05636  -0.05628  -0.05154
  Beta virt. eigenvalues --   -0.05148  -0.05066  -0.05037  -0.03914  -0.03905

 Mulliken charges and spin densities:
               1          2
     1  Ru   0.435551   0.000000
     2  P    0.659296   0.000000
     3  O   -0.518243   0.000000
     4  O   -0.488558   0.000000
     5  O   -0.282652   0.000000
     6  O   -0.602769   0.000000
     7  N   -0.050707   0.000000
     8  O   -0.294301   0.000000
     9  N   -0.012440   0.000000
    10  C    0.045493   0.000000
    11  H    0.156608   0.000000
    12  C    0.367113   0.000000
    13  C    0.348921   0.000000
    14  C    0.292363   0.000000
    15  C    0.142457   0.000000
    16  C   -0.205709   0.000000
    17  H    0.164609   0.000000
    18  C   -0.100269   0.000000
    19  H    0.171926   0.000000
    20  C   -0.121848   0.000000
    21  H    0.137341   0.000000
    22  C   -0.233984   0.000000
    23  H    0.150918   0.000000
    24  C   -0.288888   0.000000
    25  H    0.162522   0.000000
    26  C   -0.115366   0.000000
    27  H    0.137298   0.000000
    28  C    0.131074   0.000000
    29  C   -0.070230   0.000000
    30  H    0.149409   0.000000
    31  C    0.293039   0.000000
    32  C   -0.155799   0.000000
    33  H    0.160832   0.000000
    34  C   -0.106498   0.000000
    35  H    0.133515   0.000000
    36  C   -0.253358   0.000000
    37  H    0.153621   0.000000
    38  C   -0.178173   0.000000
    39  C   -0.082473   0.000000
    40  H    0.211737   0.000000
    41  C   -0.296900   0.000000
    42  H    0.126565   0.000000
    43  C   -0.155188   0.000000
    44  H    0.168037   0.000000
    45  H    0.145820   0.000000
    46  C   -0.148737   0.000000
    47  H    0.136890   0.000000
    48  C   -0.165869   0.000000
    49  C   -0.151148   0.000000
    50  H    0.135776   0.000000
    51  C    0.140471   0.000000
    52  C   -0.225793   0.000000
    53  H    0.143921   0.000000
    54  H    0.148814   0.000000
    55  H    0.135901   0.000000
    56  C   -0.106711   0.000000
    57  H    0.138189   0.000000
    58  C   -0.103802   0.000000
    59  H    0.140471   0.000000
    60  C   -0.215896   0.000000
    61  H    0.139330   0.000000
    62  H    0.139448   0.000000
    63  H    0.148338   0.000000
    64  C   -0.164829   0.000000
    65  H    0.138327   0.000000
    66  C   -0.142836   0.000000
    67  H    0.142968   0.000000
    68  C   -0.282926   0.000000
    69  H    0.128725   0.000000
    70  C   -0.125755   0.000000
    71  H    0.191429   0.000000
    72  C   -0.095200   0.000000
    73  H    0.141331   0.000000
    74  C   -0.086264   0.000000
    75  H    0.157182   0.000000
    76  H    0.150603   0.000000
    77  C   -0.154213   0.000000
    78  H    0.139871   0.000000
    79  Ru   0.435628   0.000000
    80  P    0.659378   0.000000
    81  O   -0.518283   0.000000
    82  O   -0.488552   0.000000
    83  O   -0.282737   0.000000
    84  O   -0.602896   0.000000
    85  N   -0.050532   0.000000
    86  O   -0.294591   0.000000
    87  N   -0.012432   0.000000
    88  C    0.044825   0.000000
    89  H    0.156575   0.000000
    90  C    0.367528   0.000000
    91  C    0.350454   0.000000
    92  C    0.291800   0.000000
    93  C    0.142078   0.000000
    94  C   -0.205729   0.000000
    95  H    0.164604   0.000000
    96  C   -0.100197   0.000000
    97  H    0.171917   0.000000
    98  C   -0.121895   0.000000
    99  H    0.137341   0.000000
   100  C   -0.232877   0.000000
   101  H    0.150945   0.000000
   102  C   -0.288808   0.000000
   103  H    0.162524   0.000000
   104  C   -0.115342   0.000000
   105  H    0.137298   0.000000
   106  C    0.130898   0.000000
   107  C   -0.070217   0.000000
   108  H    0.149436   0.000000
   109  C    0.292103   0.000000
   110  C   -0.155740   0.000000
   111  H    0.160821   0.000000
   112  C   -0.106515   0.000000
   113  H    0.133511   0.000000
   114  C   -0.252928   0.000000
   115  H    0.153623   0.000000
   116  C   -0.178384   0.000000
   117  C   -0.082208   0.000000
   118  H    0.211821   0.000000
   119  C   -0.296298   0.000000
   120  H    0.126531   0.000000
   121  C   -0.155105   0.000000
   122  H    0.168036   0.000000
   123  H    0.145846   0.000000
   124  C   -0.148779   0.000000
   125  H    0.136885   0.000000
   126  C   -0.166173   0.000000
   127  C   -0.151323   0.000000
   128  H    0.135754   0.000000
   129  C    0.140614   0.000000
   130  C   -0.225796   0.000000
   131  H    0.143919   0.000000
   132  H    0.148825   0.000000
   133  H    0.136061   0.000000
   134  C   -0.106649   0.000000
   135  H    0.138185   0.000000
   136  C   -0.104369   0.000000
   137  H    0.140461   0.000000
   138  C   -0.215913   0.000000
   139  H    0.139332   0.000000
   140  H    0.139438   0.000000
   141  H    0.148335   0.000000
   142  C   -0.164883   0.000000
   143  H    0.138321   0.000000
   144  C   -0.142935   0.000000
   145  H    0.142826   0.000000
   146  C   -0.283047   0.000000
   147  H    0.128714   0.000000
   148  C   -0.125584   0.000000
   149  H    0.191474   0.000000
   150  C   -0.095188   0.000000
   151  H    0.141328   0.000000
   152  C   -0.086169   0.000000
   153  H    0.157120   0.000000
   154  H    0.150603   0.000000
   155  C   -0.154226   0.000000
   156  H    0.139869   0.000000
 Sum of Mulliken charges =   2.00000   0.00000

 Dipole moment (field-independent basis, Debye):
    X=              0.0139    Y=             -0.0100    Z=              0.0067  Tot=              0.0184
 Quadrupole moment (field-independent basis, Debye-Ang):
   XX=           -312.1997   YY=           -412.5562   ZZ=           -404.9866
   XY=             50.3700   XZ=            -42.3789   YZ=             10.6168

 Normal termination of Gaussian 16 at Fri Apr 26 16:57:56 2024.
